 -----------------------  START LMPG -----------------------
#rf   46: n=8,6 fm=1(1) nk=16,16 fe/fe

 LMPG:     nbas = 14  nspec = 7  vn 7.11.f  verb 31,20
 special
 pot:      XC:BH
 asa:      no-ccor
 bz:       metal, invit 

 PGFSET (warning): PL 0 extends beyond sites in other PL:
 max P1xP2 for PL 0 is 2.500000 ... add plat(3) for these layers:
   PL  min P1xP2  ib   New P1xP2
   5    0.000000   1    7.000000
   6    1.000000   3    8.000000
 PGFSET: 7 principal layers, 14+2+2 sites.  Normal: 0 0 1
   PL |   0   1   2   3   4   5   6
 size |   2   2   2   2   2   2   2
  PLV |   0   0   0   0   0   0   0
 Basis reordered by increasing PL:
   PL  1  1  2  2  3  3  4  4  5  5  6  6  7  7
 Site  5  6  7  8  9 10 11 12 13 14  1  2  3  4

 LATTIC:  Padding Plat(3) with end principal layers: 
   0.000000   0.000000   7.000000 Plat(3) as input
   0.000000   0.000000   1.000000 PlatL:  angle (deg) with Plat(3) = 0
   0.000000   0.000000   1.000000 PlatR:  angle (deg) with Plat(3) = 0
   0.000000   0.000000  11.000000 Plat(3) including padding

                Plat                                  Qlat
   1.000000   0.000000   0.000000        1.000000   0.000000   0.000000
   0.000000   1.000000   0.000000        0.000000   1.000000   0.000000
   0.000000   0.000000  11.000000        0.000000   0.000000   0.090909
   alat = 5.44  Cell vol = 1770.881024

 xlgen: added missing plat: ivck= 0 0 1  rmax=   7.151  rpad*rmax=   0.000

 LATTC:  as= 2.000   tol=1.00E-12   alat= 5.44000   awald= 0.165
         r1=  7.151   nkd= 483      q1=  1.736   nkg= 255

 SGROUP: 1 symmetry operations from 0 generators
 SYMLAT: Bravais system is tetragonal with 16 symmetry operations.
 SYMCRY: crystal invariant under 16 symmetry operations for tol=1e-5
 GROUPG: the following are sufficient to generate the space group:
         r4z i:(-1/2,-1/2,-1/2) r2(1,1,0):(1/2,1/2,-1/2)
         r4z i::(1/2,1/2,-1/22) r2(1,1,0)::(1/2,1/2,-1/22)
 MKSYM:  found 16 space group operations ... includes inversion
         7 classes for embedding region + 2 for padding layers
  2D-reciprocal vectors:
    1.000000    0.000000    0.000000
    0.000000    1.000000    0.000000
 BZMESH:  45 irreducible QP from 256 ( 16 16 1 )  shift= F F F
  
 ZMESH: nz=60 (ellipse)  ecc,eps=0.9,-0.8  e1,e2=-0.80,0.80

 IOVSHF: read file vshft: ef=0.8  vconst=0

 GETZV:  144 valence electrons

 Electrostatics for embedded L-C-R system:

 Class        Qtot       Qbak       Vmad     Vh(Rmax)    V(Rmax)
 XA1        0.000000   0.000000   0.000000   0.000000  -0.762588
 XA2        0.000000   0.000000   0.000000   0.000000  -0.762588
 XA3        0.000000   0.000000   0.000000   0.000000  -0.762588
 XA4        0.000000   0.000000   0.000000   0.000000  -0.762588
 XB1        0.000000   0.000000   0.000000   0.000000  -0.762588
 XB2        0.000000   0.000000   0.000000   0.000000  -0.762588
 XB3        0.000000   0.000000   0.000000   0.000000  -0.762588
 XA42       0.000000   0.000000   0.000000   0.000000  -0.762588
 XA32       0.000000   0.000000   0.000000   0.000000  -0.762588
 XA43       0.000000   0.000000   0.000000   0.000000   0.000000
 XA33       0.000000   0.000000   0.000000   0.000000   0.000000
 Sum Q=-0.000002  Emad=0.000000(0.000000)  Vmtz=-0.623936

 ES potential for infinitely repeating L princ layer:

 Class        Qtot       Qbak       Vmad     Vh(Rmax)    V(Rmax)
 XA42       0.000000   0.000000   0.000000   0.000000  -0.762588
 XA32       0.000000   0.000000   0.000000   0.000000  -0.762588
 Sum Q=0.000000  Emad=0.000000(0.000000)  Vmtz=-0.762588

 ES potential for infinitely repeating R princ layer:

 Class        Qtot       Qbak       Vmad     Vh(Rmax)    V(Rmax)
 XA42       0.000000   0.000000   0.000000   0.000000  -0.762588
 XA32       0.000000   0.000000   0.000000   0.000000  -0.762588
 Sum Q=0.000000  Emad=0.000000(0.000000)  Vmtz=-0.762588

 Deviations in end potentials:
 region met  <ves>Bulk   <ves>layer     Diff      RMS diff
  L      T    0.000000    0.000000    0.000000    0.000000
  R      T    0.000000    0.000000    0.000000    0.000000

 RMS pot difference in L PL = 0.000000  in R PL = 0.000000  total = 0.000000
 vconst that minimizes potential mismatch to end layers =  0.000000
 vconst is now (estimate to satisfy charge neutrality)  =  0.000000
 difference                                             =  0.000000
 cpudel    ...   Time this iter:  time(s):  0.289    total:  0.289s

 Makidx:  hamiltonian dimensions Low, Int, High, Negl: 162 0 0 0
 SUHAM : 2nd generation ASA; potential functions P3

 --- PGFASA ( ) ---
 layer GF  and pdos,  using P3
   PL   0   1   2   3   4   5   6
 nbas   2   2   2   2   2   2   2
 ndim  18  18  18  18  18  18  18
 ldim  18  18  18  18  18  18  18
  L+I  18  18  18  18  18  18  18
  PLV   0   0   0   0   0   0   0
 
 using ef=0.8000000  vconst=0.0000000 vconst(L)=0.0000000 vconst(R)=0.0000000
 
 pgglst mode 1     8 PL   (-1:6)
 pgglst mode 0     7 PL   (0:6)
  
 SUPGBC: Making  GF     for PL -1
 SUPGBC: Making  GF     for PL  7
 iz = 1 of 60  z = -0.800000 0.000073  wz = 0.000002 0.000187  q= 0 0 0

 PGPDOS: partial dos (Pade approximation) ndos=1001 dosw = -0.8 1
 pgfasa needs d.c. terms

 pgfasa (exit): vconst updated from 0.000000 to 0.000000
 setting sumev=0 for now
 Exit 0 LMPG 
 CPU time:    5.309s   Wall clock    5.365s   18:45:34 25.09.2015        on phpdl1.ph.kcl.ac.uk
